% Model:              Beam.mph
% Version:            COMSOL 6.3.0.290
% Date:               Jun 14 2025, 10:50
% Dimension:          2
% Nodes:              1000
% Expressions:        5
% Description: Displacement magnitude, Rotation field, Z component, Bending moment, local z direction, Shear force, local y direction, Normal strain at the first calculation point
% Length unit:        m
% X                       Y                        beam.disp (m)            thz (rad)                beam.Mzl (N*m)           beam.Tyl (N)             beam.e_1 (1)
5.0E-4                    0                        3.890557690402765E-9     1.5555982784385275E-5    129.4769904392294        624.7977225916896        7.768619426353762E-4
0.0015                    0                        3.495878741859188E-8     4.655548476308932E-5     128.8521927166377        624.7977225916896        7.73113156299826E-4
0.0025                    0                        9.69515433987741E-8      7.740503528837135E-5     128.22739499404605       624.7977225916896        7.69364369964276E-4
0.0035                    0                        1.8971887417752744E-7    1.081046343602314E-4     127.60259727145433       624.7977225916896        7.656155836287258E-4
0.0045                    0                        3.1311082830142945E-7    1.3865428197866944E-4    126.97779954886265       624.7977225916896        7.618667972931757E-4
0.0055                    0                        4.669774543170587E-7     1.6905397814368547E-4    126.35300182627094       624.7977225916896        7.581180109576254E-4
0.0065                    0                        6.51168800770993E-7      1.9930372285527947E-4    125.72820410367926       624.7977225916896        7.543692246220753E-4
0.0075                    0                        8.655349162098103E-7     2.2940351611345144E-4    125.10340638108755       624.7977225916896        7.506204382865251E-4
0.0085                    0                        1.1099258491800885E-6    2.593533579182015E-4     124.47860865849583       624.7977225916896        7.468716519509748E-4
0.0095                    0                        1.384191648228406E-6     2.891532482695295E-4     123.85381093590415       624.7977225916896        7.431228656154247E-4
0.0105                    0                        1.6881824119013405E-6    3.188034871674355E-4     123.23401321331227       614.7977225918016        7.394040792798734E-4
0.0115                    0                        2.0217493887454695E-6    3.483058746119194E-4     122.61921549072058       614.7977225918016        7.357152929443234E-4
0.0125                    0                        2.3847449773073715E-6    3.7766071060298134E-4    122.00441776812865       614.7977225918016        7.320265066087716E-4
0.0135                    0                        2.7770216261336247E-6    4.0686799514062116E-4    121.3896200455369        614.7977225918016        7.283377202732212E-4
0.0145                    0                        3.198431783770807E-6     4.35927728224839E-4      120.7748223229451        614.7977225918016        7.246489339376704E-4
0.0155                    0                        3.6488278987654945E-6    4.6483990985563483E-4    120.16002460035332       614.7977225918016        7.209601476021199E-4
0.0165                    0                        4.128062419664269E-6     4.936045400330085E-4     119.54522687776154       614.7977225918016        7.17271361266569E-4
0.0175                    0                        4.635987795013707E-6     5.222216187569603E-4     118.93042915516985       614.7977225918016        7.13582574931019E-4
0.0185                    0                        5.172456473360382E-6     5.506911460274901E-4     118.31563143257799       614.7977225918016        7.098937885954678E-4
0.0195                    0                        5.737320903250878E-6     5.790131218445977E-4     117.70083370998624       614.7977225918016        7.062050022599173E-4
0.0205                    0                        6.330433583231769E-6     6.071878462082832E-4     117.0910359873935        604.7977225917954        7.025462159243608E-4
0.0215                    0                        6.951648161849636E-6     6.352171191185465E-4     116.4862382648014        604.7977225917954        6.989174295888083E-4
0.0225                    0                        7.600819437651056E-6     6.63101240575388E-4      115.88144054220969       604.7977225917954        6.95288643253258E-4
0.0235                    0                        8.277802259182605E-6     6.90840210578807E-4      115.27664281961779       604.7977225917954        6.916598569177066E-4
0.0245                    0                        8.982451474990864E-6     7.184340291288044E-4     114.67184509702594       604.7977225917954        6.880310705821555E-4
0.0255                    0                        9.714621933622406E-6     7.458826962253799E-4     114.0670473744342        604.7977225917954        6.844022842466051E-4
0.0265                    0                        1.0474168483623815E-5    7.731862118685328E-4     113.46224965184234       604.7977225917954        6.807734979110539E-4
0.0275                    0                        1.1260945973541666E-5    8.003445760582638E-4     112.8574519292503        604.7977225917954        6.771447115755017E-4
0.0285                    0                        1.2074809251922536E-5    8.27357788794573E-4      112.2526542066585        604.7977225917954        6.735159252399509E-4
0.0295                    0                        1.2915613167313003E-5    8.5422585007746E-4       111.64785648406648       604.7977225917954        6.698871389043987E-4
0.0305                    0                        1.3783212618259646E-5    8.809490599069247E-4     111.04805876147286       594.7977225915226        6.66288352568837E-4
0.0315                    0                        1.4677463653309047E-5    9.075292182829675E-4     110.45326103888175       594.7977225915226        6.627195662332903E-4
0.0325                    0                        1.5598223471007773E-5    9.339666252055877E-4     109.8584633162902        594.7977225915226        6.591507798977411E-4
0.0335                    0                        1.6545349319902416E-5    9.602612806747864E-4     109.26366559369855       594.7977225915226        6.555819935621911E-4
0.0345                    0                        1.751869844853954E-5     9.864131846905632E-4     108.66886787110697       594.7977225915226        6.520132072266417E-4
0.0355                    0                        1.8518128105465727E-5    0.0010124223372529177    108.07407014851574       594.7977225915226        6.484444208910943E-4
0.0365                    0                        1.9543495539227567E-5    0.0010382887383618507    107.47927242592424       594.7977225915226        6.448756345555453E-4
0.0375                    0                        2.0594657998371623E-5    0.0010640123880173611    106.88447470333237       594.7977225915226        6.413068482199942E-4
0.0385                    0                        2.1671472731444484E-5    0.0010895932862194503    106.28967698074109       594.7977225915226        6.377380618844465E-4
0.0395                    0                        2.277379698699272E-5     0.0011150314329681174    105.69487925815004       594.7977225915226        6.341692755489001E-4
0.0405                    0                        2.3901488063562913E-5    0.0011403271282633622    105.10508153556076       584.7977225920788        6.306304892133643E-4
0.0415                    0                        2.505440440970164E-5     0.001165482172105186     104.52028381296837       584.7977225920788        6.271217028778101E-4
0.0425                    0                        2.623240562395548E-5     0.0011904968644935868    103.9354860903754        584.7977225920788        6.236129165422523E-4
0.0435                    0                        2.7435351354871E-5       0.0012153712054285665    103.35068836778366       584.7977225920788        6.201041302067019E-4
0.0445                    0                        2.8663101250994795E-5    0.001240105194910123     102.76589064519163       584.7977225920788        6.165953438711496E-4
0.0455                    0                        2.991551496087344E-5     0.0012646988329382577    102.18109292259965       584.7977225920788        6.130865575355978E-4
0.0465                    0                        3.1192452133053506E-5    0.0012891521195129714    101.59629520000762       584.7977225920788        6.095777712000456E-4
0.0475                    0                        3.249377241608158E-5     0.001313465054634262     101.0114974774157        584.7977225920788        6.060689848644941E-4
0.0485                    0                        3.381933545850422E-5     0.0013376376383021304    100.42669975482309       584.7977225920788        6.025601985289383E-4
0.0495                    0                        3.516900090886803E-5     0.0013616698705165768    99.84190203223093        584.7977225920788        5.990514121933855E-4
0.0505                    0                        3.654262846571957E-5     0.0013855620512776014    99.26210430963893        574.7977225929902        5.955726258578334E-4
0.0515                    0                        3.794007897760542E-5     0.0014093159805852035    98.68730658704764        574.7977225929902        5.921238395222857E-4
0.0525                    0                        3.9361214443072164E-5    0.0014329319584393838    98.11250886445444        574.7977225929902        5.886750531867266E-4
0.0535                    0                        4.080589691066638E-5     0.0014564099848401425    97.53771114186206        574.7977225929902        5.852262668511722E-4
0.0545                    0                        4.227398842893465E-5     0.0014797500597874772    96.96291341926904        574.7977225929902        5.817774805156141E-4
0.0555                    0                        4.376535104642354E-5     0.0015029521832813913    96.3881156966765         574.7977225929902        5.783286941800587E-4
0.0565                    0                        4.527984681167963E-5     0.0015260163553218818    95.81331797408404        574.7977225929902        5.748799078445041E-4
0.0575                    0                        4.68173377732495E-5      0.001548942575908952     95.23852025149102        574.7977225929902        5.71431121508946E-4
0.0585                    0                        4.8377685979679725E-5    0.0015717308450425985    94.66372252889846        574.7977225929902        5.679823351733906E-4
0.0595                    0                        4.996075347951687E-5     0.0015943811627228228    94.08892480630522        574.7977225929902        5.645335488378312E-4
0.0605                    0                        5.156640237130755E-5     0.0016168938289496248    93.51912708371395        564.7977225912964        5.611147625022836E-4
0.0615                    0                        5.319449590359832E-5     0.0016392706437230048    92.95432936112111        564.7977225912964        5.577259761667266E-4
0.0625                    0                        5.484489847493576E-5     0.0016615119070429632    92.38953163853121        564.7977225912964        5.543371898311871E-4
0.0635                    0                        5.651747453386645E-5     0.0016836176189094993    91.82473391593996        564.7977225912964        5.509484034956396E-4
0.0645                    0                        5.821208852893696E-5     0.0017055877793226133    91.25993619334847        564.7977225912964        5.475596171600907E-4
0.0655                    0                        5.9928604908693875E-5    0.0017274223882823075    90.69513847075758        564.7977225912964        5.441708308245454E-4
0.0665                    0                        6.166688812168377E-5     0.0017491214457885775    90.13034074816682        564.7977225912964        5.407820444890008E-4
0.0675                    0                        6.342680261645321E-5     0.001770684951841427     89.56554302557478        564.7977225912964        5.373932581534485E-4
0.0685                    0                        6.52082128415488E-5      0.0017921129064408545    89.00074530298483        564.7977225912964        5.340044718179088E-4
0.0695                    0                        6.701098324551712E-5     0.0018134053095868595    88.43594758039347        564.7977225912964        5.306156854823608E-4
0.0705                    0                        6.88349783269047E-5      0.0018345624612794418    87.87614985779858        554.7977225911421        5.272568991467913E-4
0.0715                    0                        7.068006373425817E-5     0.0018555861615186019    87.32135213520556        554.7977225911421        5.239281128112332E-4
0.0725                    0                        7.254610626612411E-5     0.0018764767103043407    86.76655441261472        554.7977225911421        5.205993264756882E-4
0.0735                    0                        7.443297277104905E-5     0.0018972341076366587    86.21175669002665        554.7977225911421        5.172705401401597E-4
0.0745                    0                        7.634053009757962E-5     0.0019178583535155523    85.65695896743539        554.7977225911421        5.139417538046122E-4
0.0755                    0                        7.826864509426235E-5     0.0019383494479410265    85.10216124484421        554.7977225911421        5.106129674690652E-4
0.0765                    0                        8.021718460964386E-5     0.00195870739091308      84.54736352225409        554.7977225911421        5.072841811335244E-4
0.0775                    0                        8.218601549227072E-5     0.00197893218243171      83.99256579966118        554.7977225911421        5.039553947979669E-4
0.0785                    0                        8.417500459068948E-5     0.0019990238224969177    83.43776807707243        554.7977225911421        5.006266084624345E-4
0.0795                    0                        8.618401875344674E-5     0.0020189823111087042    82.88297035448322        554.7977225911421        4.972978221268993E-4
0.0805                    0                        8.821292487908909E-5     0.0020388079482670687    82.33317263189116        544.7977225898627        4.939990357913468E-4
0.0815                    0                        9.026159101616307E-5     0.0020585025339720136    81.78837490930675        544.7977225898627        4.907302494558404E-4
0.0825                    0                        9.23298863632153E-5      0.0020780663682235354    81.24357718671459        544.7977225898627        4.874614631202874E-4
0.0835                    0                        9.441768016879234E-5     0.002097499451021636     80.69877946412619        544.7977225898627        4.84192676784757E-4
0.0845                    0                        9.652484168144078E-5     0.0021168017823663147    80.15398174153583        544.7977225898627        4.8092389044921487E-4
0.0855                    0                        9.865124014970718E-5     0.002135973362257574     79.6091840189461         544.7977225898627        4.7765510411367645E-4
0.0865                    0                        1.0079674482213809E-4    0.002155014190695411     79.06438629635487        544.7977225898627        4.743863177781291E-4
0.0875                    0                        1.0296122494728017E-4    0.002173924267679825     78.51958857376756        544.7977225898627        4.7111753144260526E-4
0.0885                    0                        1.0514454977367994E-4    0.0021927035932108162    77.97479085117402        544.7977225898627        4.6784874510704403E-4
0.0895                    0                        1.0734658854988398E-4    0.002211352167288389     77.42999312858603        544.7977225898627        4.645799587715161E-4
0.0905                    0                        1.0956721057443891E-4    0.002229870289912539     76.89019540599308        534.7977225902413        4.613411724359584E-4
0.0915                    0                        1.1180628629589127E-4    0.0022482597610832657    76.35539768340516        534.7977225902413        4.581323861004308E-4
0.0925                    0                        1.1406368731278764E-4    0.002266520880800571     75.82059996081507        534.7977225902413        4.5492359976489035E-4
0.0935                    0                        1.1633928527367461E-4    0.002284653649064456     75.2858022382235         534.7977225902413        4.5171481342934084E-4
0.0945                    0                        1.1863295182709876E-4    0.002302658065874919     74.75100451563416        534.7977225902413        4.485060270938049E-4
0.0955                    0                        1.2094455862160667E-4    0.00232053413123196      74.2162067930453         534.7977225902413        4.452972407582717E-4
0.0965                    0                        1.2327397730574487E-4    0.002338281845135581     73.68140907045482        534.7977225902413        4.420884544227288E-4
0.0975                    0                        1.2562107952806002E-4    0.0023559012075857794    73.1466113478648         534.7977225902413        4.3887966808718874E-4
0.0985                    0                        1.279857369370986E-4     0.0023733922185825568    72.61181362527385        534.7977225902413        4.3567088175164304E-4
0.0995                    0                        1.3036782118140732E-4    0.0023907548781259124    72.07701590268523        534.7977225902413        4.3246209541611126E-4
0.1005                    0                        1.3276720395953266E-4    0.002407989486215844     71.54721818008102        524.7977225894357        4.2928330908048595E-4
0.1015                    0                        1.351837581200212E-4     0.0024250978428523523    71.02242045748804        524.7977225894357        4.261345227449282E-4
0.1025                    0                        1.3761735766141953E-4    0.002442080248035438     70.49762273490063        524.7977225894357        4.2298573640940363E-4
0.1035                    0                        1.4006787663227424E-4    0.002458936701765106     69.97282501230778        524.7977225894357        4.198369500738466E-4
0.1045                    0                        1.4253518908113194E-4    0.0024756672040413433    69.44802728971746        524.7977225894357        4.1668816373830467E-4
0.1055                    0                        1.4501916905653914E-4    0.0024922717548641698    68.92322956712773        524.7977225894357        4.1353937740276625E-4
0.1065                    0                        1.4751969060704245E-4    0.002508750354233568     68.39843184453498        524.7977225894357        4.1039059106720983E-4
0.1075                    0                        1.5003662778118848E-4    0.002525103002149545     67.87363412194641        524.7977225894357        4.072418047316784E-4
0.1085                    0                        1.5256985462752375E-4    0.0025413296986121024    67.34883639935668        524.7977225894357        4.0409301839614E-4
0.1095                    0                        1.5511924519459488E-4    0.0025574304436212364    66.82403867676787        524.7977225894357        4.0094423206060714E-4
0.1105                    0                        1.5768467358094843E-4    0.0025734055371769496    66.30424095417736        514.7977225921827        3.978254457250641E-4
0.1115                    0                        1.6026601503513096E-4    0.0025892567792792404    65.78944323157751        514.7977225921827        3.94736659389465E-4
0.1125                    0                        1.628631459556891E-4     0.002604984469928106     65.27464550898506        514.7977225921827        3.9164787305391027E-4
0.1135                    0                        1.6547594279116938E-4    0.0026205886091235546    64.75984778639267        514.7977225921827        3.8855908671835593E-4
0.1145                    0                        1.6810428199011838E-4    0.0026360691968655777    64.24505006380132        514.7977225921827        3.854703003828078E-4
0.1155                    0                        1.7074804000108274E-4    0.0026514262331541793    63.73025234120956        514.7977225921827        3.8238151404725723E-4
0.1165                    0                        1.7340709327260894E-4    0.0026666597179893546    63.21545461861711        514.7977225921827        3.7929272771170257E-4
0.1175                    0                        1.760813182532436E-4     0.0026817696513711164    62.70065689602766        514.7977225921827        3.762039413761659E-4
0.1185                    0                        1.7877059139153334E-4    0.00269675603329945      62.18585917343267        514.7977225921827        3.731151550405959E-4
0.1195                    0                        1.814747891360247E-4     0.0027116188637743626    61.67106145084091        514.7977225921827        3.7002636870504536E-4
0.1205                    0                        1.8419378798526423E-4    0.0027263584427958546    61.16126372826017        504.7977225916139        3.6696758236956094E-4
0.1215                    0                        1.869274655877986E-4     0.0027409765703639254    60.65646600567494        504.7977225916139        3.6393879603404956E-4
0.1225                    0                        1.8967570074217432E-4    0.0027554735464785773    60.15166828307885        504.7977225916139        3.60910009698473E-4
0.1235                    0                        1.9243837229693795E-4    0.002769849371139805     59.646870560486846       504.7977225916139        3.57881223362921E-4
0.1245                    0                        1.9521535910063613E-4    0.0027841040443476106    59.14207283789903        504.7977225916139        3.548524370273941E-4
0.1255                    0                        1.9800654000181537E-4    0.0027982375661019976    58.63727511530767        504.7977225916139        3.5182365069184597E-4
0.1265                    0                        2.0081179384902228E-4    0.002812249936402959     58.132477392716204       504.7977225916139        3.487948643562972E-4
0.1275                    0                        2.036309994908035E-4     0.0028261411552505025    57.62767967012844        504.7977225916139        3.4576607802077057E-4
0.1285                    0                        2.0646403577570548E-4    0.0028399112226446172    57.12288194753558        504.7977225916139        3.427372916852134E-4
0.1295                    0                        2.0931078155227492E-4    0.0028535601385853166    56.61808422493625        504.7977225916139        3.397085053496174E-4
0.1305                    0                        2.1217111571905832E-4    0.0028670882030725937    56.118286502357876       494.7977225922293        3.367097190141472E-4
0.1315                    0                        2.150449183246023E-4     0.0028804972161064492    55.62348877977595        494.7977225922293        3.3374093267865557E-4
0.1325                    0                        2.1793207056745344E-4    0.002893787477686881     55.12869105717956        494.7977225922293        3.3077214634307726E-4
0.1335                    0                        2.2083245369615827E-4    0.0029069589878138995    54.633893334590425       494.7977225922293        3.278033600075425E-4
0.1345                    0                        2.237459489592634E-4     0.0029200117464874835    54.139095611999736       494.7977225922293        3.2483457367199833E-4
0.1355                    0                        2.2667243760531546E-4    0.002932945753707664     53.64429788941029        494.7977225922293        3.2186578733646166E-4
0.1365                    0                        2.296118008828609E-4     0.0029457610094744038    53.149500166817724       494.7977225922293        3.1889700100090623E-4
0.1375                    0                        2.3256392004044647E-4    0.002958457513787726     52.65470244422978        494.7977225922293        3.159282146653786E-4
0.1385                    0                        2.355286763266186E-4     0.002971035266647634     52.15990472163119        494.7977225922293        3.129594283297871E-4
0.1395                    0                        2.3850595098992393E-4    0.0029834942680541164    51.66510699904834        494.7977225922293        3.0999064199429E-4
0.1405                    0                        2.41495625328909E-4      0.0029958348180071787    51.17530927646424        484.79772258550247       3.070518556587854E-4
0.1415                    0                        2.444975817921204E-4     0.0030080587165068175    50.69051155387566        484.79772258550247       3.041430693232539E-4
0.1425                    0                        2.4751170397810477E-4    0.0030201662635530404    50.205713831293664       484.79772258550247       3.0123428298776196E-4
0.1435                    0                        2.505378755354087E-4     0.0030321574591458404    49.720916108708          484.79772258550247       2.98325496652248E-4
0.1445                    0                        2.5357598011257863E-4    0.0030440323032852185    49.236118386122286       484.79772258550247       2.9541671031673366E-4
0.1455                    0                        2.566259013581613E-4     0.003055790795971177     48.751320663536134       484.79772258550247       2.9250792398121674E-4
0.1465                    0                        2.5968752292070325E-4    0.0030674329372037093    48.26652294095172        484.79772258550247       2.8959913764571024E-4
0.1475                    0                        2.62760728448751E-4      0.0030789587269828356    47.78172521836082        484.79772258550247       2.8669035131016486E-4
0.1485                    0                        2.658454015908511E-4     0.0030903681653085334    47.29692749577964        484.79772258550247       2.8378156497467776E-4
0.1495                    0                        2.689414259955502E-4     0.00310166125218081      46.81212977319661        484.79772258550247       2.808727786391796E-4
0.1505                    0                        2.720486853613949E-4     0.003112838287599667     46.33233205060077        474.7977225902627        2.7799399230360455E-4
0.1515                    0                        2.751670645369317E-4     0.0031239010715650994    45.85753432801179        474.7977225902627        2.7514520596807064E-4
0.1525                    0                        2.782964495207073E-4     0.003134849904077113     45.38273660543089        474.7977225902627        2.722964196325853E-4
0.1535                    0                        2.8143672636126815E-4    0.0031456847851357057    44.90793888283872        474.7977225902627        2.694476332970323E-4
0.1545                    0                        2.8458778110716093E-4    0.003156405714740874     44.43314116024875        474.7977225902627        2.665988469614925E-4
0.1555                    0                        2.8774949980693213E-4    0.0031670126928926242    43.958343437659536       474.7977225902627        2.6375006062595715E-4
0.1565                    0                        2.909217685091284E-4     0.003177505719590951     43.48354571507378        474.7977225902627        2.6090127429044264E-4
0.1575                    0                        2.941044732622962E-4     0.003187884794835858     43.00874799247948        474.7977225902627        2.580524879548768E-4
0.1585                    0                        2.972975001149822E-4     0.0031981499186273395    42.53395026989165        474.7977225902627        2.552037016193498E-4
0.1595                    0                        3.005007351157331E-4     0.0032083010909654073    42.05915254730983        474.7977225902627        2.523549152838589E-4
0.1605                    0                        3.037140643630953E-4     0.0032183386118500466    41.58935482470549        464.7977225915887        2.4953612894823286E-4
0.1615                    0                        3.0693737510561537E-4    0.0032282642812812663    41.12455710210314        464.7977225915887        2.467473426126188E-4
0.1625                    0                        3.1017055574184005E-4    0.0032380783992590556    40.6597593795156         464.7977225915887        2.4395855627709352E-4
0.1635                    0                        3.1341349472031573E-4    0.0032477809657834346    40.194961656923944       464.7977225915887        2.4116976994154363E-4
0.1645                    0                        3.1666608048958907E-4    0.0032573719808543884    39.73016393433288        464.7977225915887        2.383809836059972E-4
0.1655                    0                        3.1992820149820666E-4    0.003266851444471911     39.26536621173955        464.7977225915887        2.3559219727043725E-4
0.1665                    0                        3.231997461947151E-4     0.0032762193566360153    38.800568489145995       464.7977225915887        2.328034109348759E-4
0.1675                    0                        3.2648060302766093E-4    0.0032854757173467093    38.33577076655428        464.7977225915887        2.3001462459932567E-4
0.1685                    0                        3.2977066044559064E-4    0.0032946205266039677    37.870973043958415       464.7977225915887        2.2722583826375044E-4