% Model:              Ellipse3.mph
% Version:            COMSOL 6.3.0.290
% Date:               Oct 26 2025, 11:01
% Dimension:          2
% Nodes:              10201
% Expressions:        5
% Description: Displacement field, X component, Displacement field, Y component, Strain tensor, XX component, Strain tensor, YY component, Strain tensor, XY component
% Length unit:        m
% X                       Y                        u (m)                    v (m)                    solid.eXX (1)            solid.eYY (1)            solid.eXY (1)
-1                        1                        -0.003                   -9.0E-4                  0.003021713438483037     -9.655407741554836E-4    0
-1                        0.98                     -0.0030000000000000005   -8.806896747467822E-4    0.003021579250604358     -9.654709689405835E-4    1.2284453361951128E-8
-0.98                     1                        -0.002939565204515531    -9.000000000000001E-4    0.0030217881034667513    -9.655329142774874E-4    9.382161444739431E-9
-1                        0.96                     -0.0030000000000000005   -8.613833493721761E-4    0.003021068764090279     -9.651729518482602E-4    1.1465202016947007E-8
-0.98                     0.98                     -0.0029395685968637516   -8.806904068472468E-4    0.003021618138096325     -9.654364152447206E-4    1.483325678894772E-7
-0.96                     1                        -0.0028791288691466677   -9.000000000000001E-4    0.00302190043154979      -9.654337863896171E-4    1.0971137780665016E-8
-1                        0.94                     -0.0030000000000000005   -8.420849799139664E-4    0.003020215711479581     -9.646750291995553E-4    1.1640235469956295E-8
-0.98                     0.96                     -0.0029395787992294244   -8.613847443719936E-4    0.003021109077915534     -9.651407150072627E-4    2.8657174895990273E-7
-0.96                     0.98                     -0.00287913566233353     -8.806924135765841E-4    0.0030217316805525355    -9.65336888425482E-4     2.824595239040578E-7
-0.94                     1                        -0.002818689577784249    -9.000000000000001E-4    0.0030220846761600992    -9.652619604628548E-4    1.0923972360947035E-8
-1                        0.9199999999999999       -0.0030000000000000005   -8.227985975171188E-4    0.003019017510590527     -9.639734801367659E-4    1.1996228056060376E-8
-0.98                     0.94                     -0.0029395958462119683   -8.420869932434977E-4    0.003020258124781549     -9.646451681670255E-4    4.2763694661195523E-7
-0.96                     0.96                     -0.002879156022373217    -8.613887172560982E-4    0.0030212257571911086    -9.650448334002788E-4    5.572088913064396E-7
-0.94                     0.98                     -0.002818699727962768    -8.80695837553867E-4     0.0030219181328140824    -9.651674333344233E-4    4.1354418634301227E-7
-0.9199999999999999       1                        -0.0027582459212643056   -9.000000000000001E-4    0.0030223362897452235    -9.650143602171595E-4    1.0494291587346641E-8
-1                        0.9000000000000001       -0.0030000000000000005   -8.03528318671419E-4     0.00301747027155023      -9.630636951550702E-4    1.2455830152025005E-8
-0.98                     0.9199999999999999       -0.002939619792083763    -8.228011778572052E-4    0.003019062591911509     -9.639466082499252E-4    5.73048861798528E-7
-0.96                     0.94                     -0.0028791900401193738   -8.420928326808794E-4    0.003020380478373705     -9.645557297507622E-4    8.375682935899085E-7
-0.94                     0.96                     -0.0028187301587732985   -8.613954800219779E-4    0.00302141797019582      -9.648817099979709E-4    8.210216064294165E-7
-0.9199999999999999       0.98                     -0.002758259380830679    -8.807007719163162E-4    0.0030221725530312307    -9.64922972120944E-4     5.391551150928561E-7
-0.8999999999999999       1                        -0.002697796613173172    -9.000000000000001E-4    0.00302264885673989      -9.646840590915076E-4    9.904142121014425E-9
-1                        0.8800000000000001       -0.0030000000000000005   -7.842783622738636E-4    0.0030155692593538397    -9.619400261242153E-4    1.3008809363057594E-8
-0.98                     0.9000000000000001       -0.0029396507139235538   -8.035314003889902E-4    0.003017518640668973     -9.630405380393834E-4    7.240231543805912E-7
-0.96                     0.9199999999999999       -0.002879237828579632    -8.228087336858949E-4    0.0030191927479184624    -9.638660056616987E-4    1.1263995777719322E-6
-0.94                     0.94                     -0.0028187809995178542   -8.421027686257477E-4    0.0030205820838498285    -9.644031162642577E-4    1.23714948873678E-6
-0.9199999999999999       0.96                     -0.0027582997458334073   -8.614052296075837E-4    0.0030216805340142067    -9.646462218656655E-4    1.0742026407839962E-6
-0.8999999999999999       0.98                     -0.002697813320709097    -8.807073552148198E-4    0.003022488675340144     -9.645966428168395E-4    6.575696169999525E-7
-0.8799999999999999       1                        -0.0026373405142733597   -9.000000000000001E-4    0.0030230141462197027    -9.64262167487337E-4     9.167887761452054E-9
-1                        0.8600000000000001       -0.0030000000000000005   -7.650530697316894E-4    0.0030133090423732543    -9.605958751750613E-4    1.3644225853315373E-8
-0.98                     0.8800000000000001       -0.002939688706515157    -7.842818650333278E-4    0.003015621496244463     -9.619212939211627E-4    8.816833308907442E-7
-0.96                     0.9000000000000001       -0.0028792995431834653   -8.035404757012564E-4    0.003017658549371379     -9.629710522771113E-4    1.426263301723849E-6
-0.94                     0.9199999999999999       -0.002818852425687744    -8.228215944096408E-4    0.0030194073071172964    -9.63727970782857E-4     1.6660653264009177E-6
-0.9199999999999999       0.94                     -0.0027583671856319623   -8.421170990809197E-4    0.003020857917147147     -9.641823773286993E-4    1.620915584895725E-6
-0.8999999999999999       0.96                     -0.002697863436319133    -8.614182431211785E-4    0.0030220071651900584    -9.643314260561383E-4    1.3132419708616432E-6
-0.8799999999999999       0.98                     -0.0026373603926454405   -8.807157649922504E-4    0.003022858322229441     -9.641795776214324E-4    7.670405520315374E-7
-0.8599999999999999       1                        -0.002576876667621763    -9.000000000000001E-4    0.0030234221487095516    -9.637379157100926E-4    8.286525995474895E-9
-1                        0.8400000000000001       -0.0030000000000000005   -7.458569224534031E-4    0.0030106836970389683    -9.590238563748724E-4    1.4348001924300672E-8
-0.98                     0.8600000000000001       -0.002939733878797334    -7.650568992117042E-4    0.003013365658095813     -9.605822310110278E-4    1.0470182440630582E-6
-0.96                     0.8800000000000001       -0.002879375375528049    -7.842922182284129E-4    0.003015772938808295     -9.618650927201328E-4    1.739472835548241E-6
-0.9400000000000001       0.9000000000000001       -0.0028189446753770983   -8.035559333604237E-4    0.0030178893781108856    -9.628514704288563E-4    2.111619236721749E-6
-0.9199999999999999       0.9199999999999999       -0.0027584619403862747   -8.228401568227017E-4    0.0030197013793532104    -9.635276383914544E-4    2.184874593814607E-6
-0.8999999999999999       0.94                     -0.0026979471732124015   -8.421362401959189E-4    0.003021201762803715     -9.638865929795527E-4    1.983672552301428E-6
-0.8799999999999999       0.96                     -0.002637420027424515    -8.614348753197197E-4    0.0030223897530297222    -9.639284617982367E-4    1.5346205150881809E-6
-0.8599999999999999       0.98                     -0.002576899623256416    -8.807262164628602E-4    0.0030232715147465866    -9.636610141027582E-4    8.658225224978064E-7
-0.8400000000000001       1                        -0.0025164043339878997   -9.000000000000001E-4    0.003023861093574521     -9.630987233579247E-4    7.261088352111811E-9
-1                        0.8200000000000001       -0.0030000000000000005   -7.266945556217326E-4    0.003007687056248478     -9.572160003653851E-4    1.510315232137553E-8
-0.98                     0.8400000000000001       -0.0029397863496620365   -7.458609714416361E-4    0.0030107451154361745    -9.590158999624003E-4    1.220844616892323E-6
-0.96                     0.8600000000000001       -0.0028794655462383908   -7.650682466241657E-4    0.003013530205619582     -9.605413304200975E-4    2.068050615794866E-6
-0.94                     0.8800000000000001       -0.0028190580416628283   -7.843098695426302E-4    0.0030160230570623566    -9.617676206782399E-4    2.5773344125497716E-6
-0.9199999999999999       0.9000000000000001       -0.0027585843360284734   -8.035782675998507E-4    0.003018206372310183     -9.62676993709834E-4     2.771270942204789E-6
-0.8999999999999999       0.9199999999999999       -0.0026980648404034096   -8.228649750994802E-4    0.0030200688967340628    -9.63258157442091E-4     2.675957148564126E-6
-0.8799999999999999       0.94                     -0.0026375196798115387   -8.421607237726587E-4    0.003021605605675969     -9.635069181378637E-4    2.3201720030640908E-6
-0.8599999999999999       0.96                     -0.002576968496473451    -8.614555564235743E-4    0.0030228183944247997    -9.634265787531552E-4    1.7348405108973351E-6
-0.8400000000000001       0.98                     -0.002516430256330243    -8.807389610880815E-4    0.0030237165075842573    -9.630283716138092E-4    9.521829903748336E-7
-0.8200000000000001       1                        -0.002455923026704858    -9.000000000000001E-4    0.003024317488048165     -9.623302878504608E-4    6.0937408475717864E-9
-1                        0.8                      -0.0030000000000000005   -7.075707674944039E-4    0.0030043129987835557    -9.551639957961605E-4    1.5889872856158133E-8
-0.98                     0.8200000000000001       -0.0029398462429666363   -7.26698705393246E-4     0.003007753597580117     -9.57214254048064E-4     1.403772394448106E-6
-0.96                     0.8400000000000001       -0.002879570296491969    -7.458729907366585E-4    0.0030109240831860257    -9.58992125114886E-4     2.4136716760137186E-6
-0.94                     0.8600000000000001       -0.002819192862478       -7.65087617581122E-4     0.0030138022781281       -9.604693640140697E-4    3.0663063076488695E-6
-0.9199999999999999       0.8800000000000001       -0.002758734773947124    -7.843354092021535E-4    0.0030163672640456615    -9.616241630366097E-4    3.3848801559953345E-6
-0.8999999999999999       0.9000000000000001       -0.0026982168581059437   -8.036081691137363E-4    0.0030186036578574438    -9.624408570926233E-4    3.3967055917509537E-6
-0.8799999999999999       0.9199999999999999       -0.0026376597332622687   -8.228967574068082E-4    0.0030205020031902202    -9.629107334565209E-4    3.1323696078056074E-6
-0.8599999999999999       0.94                     -0.0025770836009299694   -8.421911947559382E-4    0.0030220596612365916    -9.630326206115138E-4    2.6251796391904094E-6
-0.8400000000000001       0.96                     -0.0025165080364608823   -8.614807893271385E-4    0.003023281418783434     -9.628131981635445E-4    1.9104336782312797E-6
-0.8200000000000001       0.98                     -0.0024559517877308645   -8.807542847936783E-4    0.0030241798302176257    -9.622673405314622E-4    1.0244165851528801E-6
-0.8                      1                        -0.002395432545540004    -9.000000000000001E-4    0.0030247761756756245    -9.614166988612902E-4    4.788088329756486E-9
-1                        0.78                     -0.0030000000000000005   -6.884905235170193E-4    0.003000555778677481     -9.528594664865141E-4    1.6685569034086134E-8
-0.98                     0.8                      -0.0029399136817432497   -7.075748894632142E-4    0.003004384863650502     -9.551688907624145E-4    1.5961708966274097E-6
-0.96                     0.8200000000000001       -0.0028796898780286584   -7.267110397370142E-4    0.0030079479982888743    -9.572091995824391E-4    2.7775998617685788E-6
-0.94                     0.8400000000000001       -0.0028193495080537996   -7.458935423170624E-4    0.0030112203492454657    -9.589487430975001E-4    3.5811131527217536E-6
-0.9199999999999999       0.8600000000000001       -0.002758913717780896    -7.65115696354214E-4     0.003014177500727568     -9.603617317332109E-4    4.029924828043731E-6
-0.8999999999999999       0.8800000000000001       -0.0026984037447430613   -7.843696624972376E-4    0.0030167999292808195    -9.614280666709191E-4    4.152016650609454E-6
-0.8799999999999999       0.9000000000000001       -0.00263784071022171     -8.036465210947619E-4    0.0030190736028689554    -9.621343501343867E-4    3.979320488012884E-6
-0.8599999999999999       0.9199999999999999       -0.0025772454010695996   -8.229363628443465E-4    0.0030209910915246587    -9.624746742924161E-4    3.5471660915775693E-6
-0.8400000000000001       0.94                     -0.002516638045279188    -8.422284073971552E-4    0.003022552384410781     -9.624511277230666E-4    2.8934965892966438E-6
-0.8200000000000001       0.96                     -0.002456038091012677    -8.615111460865025E-4    0.003023765424544076     -9.620739955212889E-4    2.0579832773557024E-6
-0.8                      0.98                     -0.002395463999331052    -8.807725056881044E-4    0.003024646344177565     -9.613619951234914E-4    1.0808625021651215E-6
-0.78                     1                        -0.0023349330091727823   -9.000000000000001E-4    0.003025220417476516     -9.603405830907024E-4    3.3495281895334905E-9
-1                        0.76                     -0.0030000000000000005   -6.694589545430506E-4    0.0029964103931642283    -9.502942835530071E-4    1.7464906739567132E-8
-0.98                     0.78                     -0.0029399887816125604   -6.884944811659656E-4    0.0030006330320436806    -9.528713287192542E-4    1.7981352014700043E-6
-0.96                     0.8                      -0.002879824541573328    -7.075871524911337E-4    0.003004595360054601     -9.551838799248778E-4    3.1606215307496363E-6
-0.94                     0.8200000000000001       -0.0028195283659988545   -7.267321748296462E-4    0.003008270196117079     -9.571971010052388E-4    4.123721010163006E-6
-0.9199999999999999       0.8400000000000001       -0.00275912167690786     -7.459234018647487E-4    0.0030116298024531383    -9.588813069079903E-4    4.709950099099243E-6
-0.8999999999999999       0.8600000000000002       -0.002698626100603301    -7.65153440253276E-4     0.0030146505468071627    -9.602119312767434E-4    4.947315489742486E-6
-0.8799999999999999       0.8800000000000001       -0.0026380632567126155   -7.844136856165021E-4    0.0030173137135055816    -9.611707433212167E-4    4.8685329367987445E-6
-0.8599999999999999       0.9000000000000001       -0.0025774545308562755   -8.036943956803772E-4    0.0030196068481574043    -9.617468538252577E-4    4.51048822337705E-6
-0.8400000000000001       0.9199999999999999       -0.002516820835489438    -8.229847967584444E-4    0.0030215248031196886    -9.61937428593268E-4     3.913428941011825E-6
-0.8200000000000001       0.94                     -0.002456182369725123    -8.422732202137629E-4    0.003023070493933191     -9.61748096291442E-4     3.1199917770238553E-6
-0.8                      0.96                     -0.002395558388478439    -8.61547263434723E-4     0.003024255330728344     -9.611930069823768E-4    2.174156295105372E-6
-0.78                     0.98                     -0.0023349669915892998   -8.807939711803484E-4    0.003025099322102267     -9.602949360695799E-4    1.119926216456198E-6
-0.76                     1                        -0.0022744248857828825   -9.000000000000001E-4    0.0030256320003941664    -9.590832842650601E-4    1.7856556222088187E-9
-1                        0.74                     -0.0030000000000000005   -6.504813484751712E-4    0.002991872986926778     -9.474609111382823E-4    1.8199928268162562E-8
-0.98                     0.76                     -0.002940071643425767    -6.694626056383377E-4    0.00299649294871158      -9.503133196055944E-4    2.009453113830754E-6
-0.96                     0.78                     -0.002879974523666184    -6.885062627793051E-4    0.003000859889086896     -9.529073710722868E-4    3.5629784119126096E-6
-0.94                     0.8                      -0.0028197298239745192   -7.076082241021051E-4    0.0030049446481261225    -9.552053170661853E-4    4.6953847121864595E-6
-0.9199999999999999       0.8200000000000001       -0.0027593591867062727   -7.267629742962991E-4    0.0030087164013586354    -9.571737096432826E-4    5.427695254285256E-6
-0.8999999999999999       0.8400000000000001       -0.0026988845874565052   -7.459636552383818E-4    0.0030121474900201375    -9.587835157432502E-4    5.787198517143849E-6
-0.8799999999999999       0.8600000000000001       -0.002638328122982088    -7.652020755692335E-4    0.0030152144472157805    -9.600115459040721E-4    5.8067288975759595E-6
-0.8599999999999999       0.8800000000000001       -0.0025777117761778133   -7.84468761863112E-4     0.0030178995862109315    -9.608416908957057E-4    5.524160288625929E-6
-0.8400000000000001       0.9000000000000001       -0.0025170571629507654   -8.037530486144398E-4    0.0030201922958110355    -9.612658670729753E-4    4.981589807859926E-6
-0.8200000000000001       0.9199999999999999       -0.002456385272636356    -8.230432044366392E-4    0.003022090038408712     -9.612846416374802E-4    4.224311401555593E-6
-0.8                      0.94                     -0.0023957162135916786   -8.423265894873633E-4    0.0030235990124620727    -9.609075070280462E-4    3.2996481911361925E-6
-0.78                     0.96                     -0.0023350689747957715   -8.615898371112867E-4    0.0030247344490773875    -9.60152764700354E-4     2.2557454453393335E-6
-0.76                     0.98                     -0.002274461214284426    -8.808190543961287E-4    0.0030255205536647034    -9.59047467920413E-4     1.1401061195531286E-6
-0.74                     1                        -0.002213909021154477    -9.000000000000001E-4    0.003025991378035414     -9.576250833916398E-4    1.0669209034771161E-10
-1                        0.72                     -0.0030000000000000005   -6.315631346787257E-4    0.0029869412891048628    -9.443527833500875E-4    1.886026026095185E-8
-0.98                     0.74                     -0.0029401623451786115   -6.504845475674513E-4    0.002991960592188559     -9.474871940605006E-4    2.229573532458798E-6
-0.96                     0.76                     -0.002880140031938165    -6.694734786537247E-4    0.002996735986340787     -9.503710679141958E-4    3.984301051687909E-6
-0.94                     0.78                     -0.0028199542499596692   -6.885265836131931E-4    0.0030012367660530123    -9.529640790564552E-4    5.296546675150869E-6
-0.9199999999999999       0.8                      -0.0027596267855599065   -7.07639051426854E-4     0.0030054293228779227    -9.552292039186986E-4    6.1849605986809735E-6
-0.8999999999999999       0.8200000000000002       -0.002699179904115658    -7.268046479551499E-4    0.0030092821138188127    -9.571329878872449E-4    6.675271972575216E-6
-0.8799999999999999       0.8400000000000001       -0.002638636139380453    -7.460156948215986E-4    0.0030127669017595976    -9.586471873928767E-4    6.799660769792511E-6
-0.8599999999999999       0.8600000000000001       -0.0025780180527048874   -7.652630938989732E-4    0.0030158605928087834    -9.597502479669664E-4    6.596310048182068E-6
-0.8400000000000001       0.8800000000000001       -0.0025173479671345075   -7.845363959600432E-4    0.003018546798798966     -9.604285027762794E-4    6.108603749345118E-6
-0.8200000000000001       0.9000000000000001       -0.002456647688692809    -8.038239119800623E-4    0.0030208171038209886    -9.606770458216035E-4    5.384064314587281E-6
-0.8                      0.9199999999999999       -0.002395938227622114    -8.231128628702254E-4    0.0030226719813193936    -9.605002334939113E-4    4.473097161379845E-6
-0.78                     0.94                     -0.0023352395319694      -8.423895610013536E-4    0.0030241213265162956    -9.599117873364758E-4    3.427624054893122E-6
-0.76                     0.96                     -0.0022745702446592196   -8.616396147971402E-4    0.0030251845822126186    -9.589344665280273E-4    2.2997214101239346E-6
-0.74                     0.98                     -0.002213947494819216    -8.808481497904969E-4    0.0030258904835778686    -9.575998167027482E-4    1.140025351365273E-6
-0.72                     1                        -0.002153386663600365    -9.000000000000001E-4    0.0030262778488009865    -9.559454641818015E-4    -1.6740843179300728E-9
-1                        0.7                      -0.0030000000000000005   -6.127098605787798E-4    0.002981615077967894     -9.409647086840433E-4    1.9413437162806486E-8
-0.98                     0.72                     -0.002940260933267175    -6.315657358846551E-4    0.002987033511978233     -9.443862392430145E-4    2.457577346390583E-6
-0.96                     0.74                     -0.0028803212289125507   -6.50494075227262E-4     0.0029922191401148776    -9.475669014043578E-4    4.423544646315822E-6
-0.94                     0.76                     -0.0028202019701499335   -6.694923321209266E-4    0.0029971402113692417    -9.504641923656574E-4    5.926735811246271E-6
-0.9199999999999999       0.78                     -0.0027599249885996813   -6.885564687611287E-4    0.003001760710643351     -9.530377632902114E-4    6.982470996906691E-6
-0.8999999999999999       0.8                      -0.002699512757880848    -7.076809623202609E-4    0.003006045423274211     -9.552498382855955E-4    7.6139840293135376E-6
-0.8799999999999999       0.8200000000000001       -0.0026389881873818545   -7.268587488772281E-4    0.003009961382667741     -9.570670653922773E-4    7.851918220868823E-6
-0.8599999999999999       0.8400000000000001       -0.0025783743782515126   -7.460812163302045E-4    0.0030134799565043474    -9.584622425382454E-4    7.733968987851114E-6
-0.8400000000000001       0.8600000000000001       -0.0025176943464761572   -7.653382464781531E-4    0.003016578688920142     -9.594157871907078E-4    7.3041251299222716E-6
-0.8200000000000001       0.8800000000000001       -0.002456970725804099    -7.846183061945669E-4    0.003019242860133243     -9.599168862086544E-4    6.611594815039354E-6
-0.8                      0.9000000000000001       -0.002396225464306905    -8.039085845877419E-4    0.003021466691313567     -9.599642610639928E-4    5.70947938493815E-6
-0.78                     0.9199999999999999       -0.002335479528434027    -8.231951702011778E-4    0.0030232541419846124    -9.595665041509162E-4    4.653279356801876E-6
-0.76                     0.94                     -0.002274752627582177    -8.42463259703847E-4     0.0030246192714008476    -9.587419677694319E-4    3.4993296908856822E-6
-0.74                     0.96                     -0.0022140629704191996   -8.616973874467649E-4    0.0030255861533038573    -9.575181855703609E-4    2.303295689962473E-6
-0.72                     0.98                     -0.002153427063400059    -8.808816678577313E-4    0.0030261883869008624    -9.559313927207438E-4    1.118468831185863E-6
-0.7                      1                        -0.002092859484909353    -9.000000000000001E-4    0.0030264697763077303    -9.540234281383564E-4    -3.5399314394131873E-9
-1                        0.6799999999999999       -0.0030000000000000005   -5.93927159942324E-4     0.0029758966663408957    -9.372932966039774E-4    1.982535948313417E-8
-0.98                     0.7                      -0.0029403674131864943   -6.127117206263343E-4    0.0029817112953303276    -9.410051044914774E-4    2.6921522722237953E-6
-0.96                     0.72                     -0.0028805182144667515   -6.315734802115875E-4    0.002987306368174014     -9.444877178062706E-4    4.878929562321908E-6
-0.94                     0.74                     -0.0028204732446004406   -6.505107279005162E-4    0.002992649656003344     -9.476969259802499E-4    6.584469322548289E-6
-0.9199999999999999       0.76                     -0.002760254258225336    -6.695202623263323E-4    0.0029977031955231437    -9.505893764672259E-4    7.819738583449374E-6
-0.8999999999999999       0.7800000000000001       -0.002699883831829605    -6.885973566536154E-4    0.003002428394077277     -9.531231390609527E-4    8.604451632189999E-6
-0.8799999999999999       0.8                      -0.0026393851656165966   -7.077356634528075E-4    0.0030067876692771306    -9.552597534059163E-4    8.966725288662181E-6
-0.8599999999999999       0.8200000000000001       -0.0025787818394784473   -7.269271710756181E-4    0.0030107467762455625    -9.569662030181775E-4    8.94284841642124E-6
-0.8400000000000001       0.8400000000000001       -0.00251809752751539     -7.461622136195064E-4    0.0030142769359619917    -9.582166693412365E-4    8.576603450928416E-6
-0.8200000000000001       0.8600000000000001       -0.002457355684028916    -7.654295361917419E-4    0.003017356708593736     -9.589939843217139E-4    7.918213277015538E-6
-0.8                      0.8800000000000001       -0.0023965792156085725   -7.847164138753883E-4    0.003019973518886228     -9.592906958888111E-4    7.022969513613535E-6
-0.78                     0.9000000000000001       -0.002335790154586048    -8.040088195327802E-4    0.0030221247593855394    -9.591096813326311E-4    5.949625942049235E-6
-0.76                     0.9199999999999999       -0.00227500934872963     -8.232916324326787E-4    0.003023818422919005     -9.584642711222084E-4    4.758660700203421E-6
-0.74                     0.94                     -0.0022142561806568657   -8.425488769757873E-4    0.0030250732467776015    -9.573778778817823E-4    3.510520667598128E-6
-0.72                     0.96                     -0.0021535483280264987   -8.617639788143758E-4    0.0030259183727629826    -9.558831249732782E-4    2.2639940680183276E-6
-0.7                      0.98                     -0.0020929015742968573   -8.809200288478151E-4    0.0030263925866673195    -9.540211031912304E-4    1.0744252166780544E-6
-0.6799999999999999       1                        -0.002032329596427002    -9.000000000000001E-4    0.003026544856485338     -9.518378630289556E-4    -5.470282877136541E-9
-1                        0.6600000000000001       -0.0030000000000000005   -5.752207124713797E-4    0.0029697913988662914    -9.333373991520627E-4    2.0060904901951965E-8
-0.98                     0.6799999999999999       -0.0029404817398093475   -5.939281414499945E-4    0.0029759960556174033    -9.373402298649327E-4    2.9315732697201766E-6
-0.96                     0.7                      -0.002880731007151196    -6.127172515729633E-4    0.0029819966904186257    -9.411276878629211E-4    5.347889364519405E-6
-0.94                     0.72                     -0.0028207682407999928   -6.315871957122323E-4    0.002987761230222291     -9.446543940549304E-4    7.26716083442278E-6
-0.9199999999999999       0.74                     -0.002760614971532183    -6.50535664970506E-4     0.002993250308362764     -9.47874392262469E-4     8.694928218723057E-6
-0.8999999999999999       0.76                     -0.0027002937479799704   -6.6955880909094E-4      0.002998422339866145     -9.507418436087881E-4    9.646284920451436E-6
-0.8799999999999999       0.78                     -0.0026398279508249353   -6.886510985093499E-4    0.0030032353279862193    -9.532132485412249E-4    1.0145729283813493E-5
-0.8599999999999999       0.8                      -0.002579241552726655    -7.078052393020925E-4    0.0030076494147526917    -9.552496605947982E-4    1.0227101666421037E-5
-0.8400000000000001       0.8200000000000001       -0.0025185588275889004   -7.270121452818347E-4    0.003011629293932306     -9.56818731598575E-4     9.933030004872015E-6
-0.8200000000000001       0.8400000000000001       -0.0024578040218752556   -7.46260971090885E-4     0.0030151464128516567    -9.578964887767688E-4    9.313939112642772E-6
-0.8                      0.8600000000000001       -0.0023970010031471468   -7.655392066317751E-4    0.0030181808483483084    -9.584687358245534E-4    8.426668172771776E-6
-0.78                     0.8800000000000001       -0.002336172902378635    -7.848328295018951E-4    0.0030207227579586112    -9.58531988741069E-4     7.332775756328906E-6
-0.76                     0.9000000000000001       -0.0022753417667990723   -8.04126508385694E-4     0.003022773333078446     -9.580938857491825E-4    6.096639599903707E-6
-0.74                     0.9199999999999999       -0.0022145282390212593   -8.234038469651508E-4    0.0030243452145528524    -9.571730456776015E-4    4.783475812387278E-6
-0.72                     0.94                     -0.0021537512761252496   -8.426476551896411E-4    0.0030254623687694542    -9.557983873359684E-4    3.45740732255774E-6
-0.7                      0.96                     -0.002093027919229034    -8.618402329874531E-4    0.0030261594473253023    -9.54007922991189E-4     2.17974020153347E-6