% Model:              Possion.mph
% Version:            COMSOL 6.3.0.290
% Date:               Jun 11 2025, 14:45
% Dimension:          2
% Nodes:              10201
% Expressions:        1
% Description:        u
% Length unit:        m
% X                       Y                        u (1)
0                         0                        0
0.010000000000000009      0                        0
0                         0.009999999999999993     0
0.010000000000000009      0.009999999999999898     0.0014103075086058228
0                         0.019999999999999987     0
0.010000000000000009      0.01999999999999985      0.0025575599887083657
0.020000000000000018      0                        0
0.019999999999999962      0.009999999999999842     0.0025575124740338066
0                         0.02999999999999998      0
0.010000000000000009      0.02999999999999997      0.0035529099281657816
0.019999999999999962      0.01999999999999985      0.004758688933537895
0.02999999999999997       0                        0
0.02999999999999997       0.009999999999999842     0.003552719869809814
0                         0.03999999999999997      0
0.010000000000000009      0.03999999999999998      0.00444425042676884
0.019999999999999962      0.02999999999999997      0.006706650017697321
0.02999999999999997       0.019999999999999796     0.006706412442955844
0.03999999999999998       0                        0
0.03999999999999995       0.009999999999999842     0.0044437752841298825
0                         0.04999999999999997      0
0.010000000000000009      0.04999999999999993      0.005256946286369024
0.019999999999999962      0.03999999999999998      0.00846567552480227
0.02999999999999997       0.029999999999999916     0.009545562955143833
0.03999999999999998       0.019999999999999796     0.008464915285903487
0.04999999999999999       0                        0
0.04999999999999996       0.009999999999999842     0.005255996016489871
0                         0.05999999999999997      0
0.010000000000000009      0.05999999999999989      0.006006523496574272
0.019999999999999962      0.04999999999999993      0.010076225821446114
0.029999999999999943      0.03999999999999998      0.012133453959675836
0.03999999999999995       0.029999999999999916     0.012132788736437994
0.04999999999999996       0.019999999999999796     0.010074562811944625
0.06                      0                        0
0.06                      0.009999999999999842     0.006004860576041287
0                         0.06999999999999997      0
0.010000000000000009      0.06999999999999995      0.00670343322142221
0.019999999999999962      0.05999999999999989      0.011565249144521188
0.02999999999999997       0.04999999999999993      0.014515770320981265
0.03999999999999995       0.03999999999999998      0.015504769885147558
0.04999999999999996       0.029999999999999916     0.014513869671720086
0.06                      0.019999999999999796     0.011562208276531176
0.07                      0                        0
0.07                      0.009999999999999842     0.006700772689133056
0                         0.07999999999999995      0
0.010000000000000009      0.08000000000000002      0.007355183259530424
0.019999999999999962      0.06999999999999995      0.012951728805285181
0.02999999999999997       0.05999999999999989      0.016725722278421763
0.03999999999999995       0.04999999999999993      0.01862630214761608
0.04999999999999996       0.03999999999999998      0.018624876596504074
0.06                      0.029999999999999916     0.016721873478918545
0.07                      0.019999999999999796     0.012946740084760912
0.08000000000000002       0                        0
0.08000000000000002       0.009999999999999842     0.007351192790583651
0                         0.08999999999999993      0
0.010000000000000009      0.08999999999999991      0.007967425897844523
0.019999999999999962      0.08000000000000002      0.014249672782204889
0.02999999999999997       0.06999999999999995      0.018788030846802195
0.03999999999999995       0.05999999999999989      0.021532895200883355
0.04999999999999996       0.04999999999999993      0.022450510378348408
0.06                      0.03999999999999998      0.021529093655966464
0.07                      0.029999999999999916     0.018781378738679466
0.08000000000000002       0.019999999999999796     0.014242071444428824
0.09000000000000002       0                        0
0.09000000000000005       0.009999999999999842     0.007961725920839392
0                         0.09999999999999994      0
0.010000000000000009      0.09999999999999987      0.008544569390145805
0.019999999999999962      0.08999999999999991      0.01546980867418379
0.02999999999999997       0.08000000000000002      0.02072160280843712
0.03999999999999995       0.06999999999999995      0.02425240658433407
0.04999999999999996       0.05999999999999989      0.026026207473017496
0.06                      0.04999999999999993      0.026023593699118275
0.07                      0.03999999999999998      0.024245088556570284
0.08000000000000002       0.029999999999999916     0.020711149971647153
0.09000000000000005       0.019999999999999796     0.015458835404055127
0.10000000000000003       0                        0
0.10000000000000006       0.009999999999999842     0.008536733262199054
0                         0.10999999999999993      0
0.010000000000000009      0.10999999999999988      0.009090147541717558
0.019999999999999962      0.09999999999999976      0.016620599831699046
0.029999999999999943      0.08999999999999991      0.02254127135390802
0.03999999999999995       0.08000000000000002      0.026806957761374876
0.04999999999999996       0.06999999999999995      0.029381038653406445
0.06                      0.05999999999999989      0.03023952950104951
0.07                      0.04999999999999993      0.029374385121564497
0.08000000000000002       0.03999999999999998      0.026794792887928107
0.09000000000000005       0.029999999999999916     0.022525878401362883
0.10000000000000006       0.019999999999999796     0.016605401097462235
0.11000000000000004       0                        0
0.11000000000000007       0.009999999999999842     0.009079701797495942
0                         0.11999999999999991      0
0.010000000000000009      0.12                     0.009607056032295105
0.019999999999999962      0.10999999999999976      0.017708886020458628
0.02999999999999997       0.09999999999999976      0.024258938496061342
0.03999999999999995       0.08999999999999991      0.029214381036792088
0.04999999999999996       0.08000000000000002      0.03253890927320245
0.06                      0.06999999999999995      0.03420595225463089
0.07                      0.05999999999999989      0.03420162688865817
0.08000000000000002       0.04999999999999993      0.03252655236143268
0.09000000000000005       0.03999999999999998      0.029195849406972334
0.10000000000000006       0.029999999999999916     0.024237324533424767
0.11000000000000007       0.019999999999999796     0.01768851455350756
0.12000000000000005       0                        0
0.12000000000000008       0.009999999999999842     0.00959348072531531
0                         0.1299999999999999       0
0.010000000000000009      0.1299999999999999       0.010097710466775179
0.019999999999999962      0.11999999999999983      0.01874030521894433
0.029999999999999943      0.10999999999999976      0.02588434148213394
0.03999999999999998       0.09999999999999976      0.031489272586512525
0.04999999999999996       0.08999999999999991      0.03551961553326924
0.06                      0.08000000000000002      0.03794748832150373
0.07                      0.06999999999999995      0.03875513471958578
0.08000000000000002       0.05999999999999989      0.03793684042065132
0.09000000000000005       0.04999999999999993      0.035499654281416854
0.10000000000000006       0.03999999999999998      0.03146266527856807
0.11000000000000007       0.029999999999999916     0.025855084781822076
0.12000000000000008       0.019999999999999796     0.01871372067626031
0.13                      0                        0
0.1300000000000001        0.009999999999999842     0.010080439623120736
0                         0.1399999999999999       0
0.010000000000000009      0.1399999999999999       0.010564156016695705
0.019999999999999962      0.1299999999999999       0.019719581709029415
0.02999999999999997       0.11999999999999977      0.027425580173521626
0.03999999999999995       0.10999999999999971      0.03364375314052081
0.04999999999999996       0.09999999999999976      0.038339701190445746
0.06                      0.08999999999999991      0.041485044522661836
0.07                      0.08000000000000002      0.043059536737416755
0.08000000000000002       0.06999999999999995      0.04305288046843678
0.09000000000000005       0.05999999999999989      0.04146579154279732
0.10000000000000006       0.04999999999999993      0.038309997848400716
0.11000000000000007       0.03999999999999998      0.033607173034841134
0.12000000000000008       0.029999999999999916     0.027387119117881158
0.13000000000000012       0.019999999999999796     0.019685651558626085
0.14                      0                        0
0.14000000000000007       0.009999999999999842     0.010542578223123232
0                         0.14999999999999988      0
0.010000000000000009      0.14999999999999986      0.011008145822455285
0.019999999999999962      0.13999999999999985      0.020650729080635834
0.02999999999999997       0.1299999999999999       0.028889489136083808
0.03999999999999995       0.11999999999999977      0.03568802066395851
0.04999999999999996       0.10999999999999971      0.04101312788509309
0.06                      0.09999999999999976      0.04483644790008769
0.07                      0.08999999999999991      0.0471362064001236
0.08000000000000002       0.08000000000000002      0.04789885079699873
0.09000000000000005       0.06999999999999995      0.047120229273119416
0.10000000000000006       0.05999999999999989      0.04480602239928007
0.11000000000000007       0.04999999999999993      0.04097130879163611
0.12000000000000008       0.03999999999999998      0.03563938360621647
0.13000000000000012       0.029999999999999916     0.028840123490490137
0.14000000000000007       0.019999999999999796     0.020608229754054342
0.15000000000000002       0                        0
0.15000000000000002       0.009999999999999842     0.010981604972586599
0                         0.1599999999999999       0
0.010000000000000009      0.15999999999999992      0.01143119850572417
0.019999999999999962      0.1499999999999998       0.021537197143114972
0.02999999999999997       0.1399999999999998       0.030281906341815885
0.03999999999999995       0.12999999999999984      0.037630756584148446
0.04999999999999996       0.11999999999999977      0.04355179246529062
0.06                      0.10999999999999976      0.04801698948145436
0.07                      0.09999999999999976      0.05100371064222672
0.08000000000000002       0.08999999999999991      0.05249613657684097
0.09000000000000005       0.08000000000000002      0.05248643338552623
0.10000000000000006       0.06999999999999995      0.05097541468979729
0.11000000000000007       0.05999999999999989      0.04797253997216258
0.12000000000000008       0.04999999999999993      0.04349524934983934
0.13000000000000012       0.03999999999999998      0.037567792979699116
0.1400000000000001        0.029999999999999916     0.030219798923996597
0.15000000000000008       0.019999999999999796     0.02148481550248833
0.16000000000000003       0                        0
0.16000000000000003       0.009999999999999842     0.011398994729617525
0                         0.1699999999999999       0
0.010000000000000009      0.16999999999999998      0.011834641283248017
0.019999999999999962      0.15999999999999992      0.02238198070490009
0.02999999999999997       0.1499999999999998       0.03160787134078714
0.03999999999999995       0.1399999999999998       0.03947942851671404
0.04999999999999996       0.12999999999999984      0.04596592531223563
0.06                      0.11999999999999977      0.05103987143296792
0.07                      0.10999999999999976      0.054678224837818964
0.08000000000000002       0.09999999999999976      0.056863627081479365
0.09000000000000005       0.08999999999999991      0.057585496894489746
0.10000000000000006       0.08000000000000002      0.056840791513409136
0.11000000000000007       0.06999999999999995      0.054634279428502366
0.12000000000000008       0.05999999999999989      0.05097826372019348
0.13000000000000012       0.04999999999999993      0.045891817121639276
0.1400000000000001        0.03999999999999998      0.039399685445096706
0.15000000000000008       0.029999999999999916     0.031531050157961225
0.16000000000000006       0.019999999999999796     0.022318315875331916
0.17000000000000004       0                        0
0.17000000000000004       0.009999999999999842     0.01179603208707983
0                         0.1799999999999999       0
0.010000000000000009      0.17999999999999988      0.01221964289377153
0.019999999999999962      0.16999999999999998      0.023187701728039578
0.029999999999999943      0.15999999999999992      0.03287177420042668
0.03999999999999998       0.1499999999999998       0.04124051909844105
0.04999999999999996       0.1399999999999998       0.04826439817983133
0.06                      0.12999999999999984      0.053916568916531536
0.07                      0.11999999999999977      0.05817389710566651
0.08000000000000002       0.10999999999999976      0.06101801739194543
0.09000000000000005       0.09999999999999976      0.06243632609234508
0.10000000000000006       0.08999999999999991      0.06242276207644102
0.11000000000000007       0.08000000000000002      0.060978238444620636
0.12000000000000008       0.06999999999999995      0.058110640195179156
0.13000000000000012       0.05999999999999983      0.053834388045204684
0.1400000000000001        0.04999999999999993      0.04816965354195206
0.15000000000000008       0.03999999999999998      0.04114136304400672
0.1600000000000001        0.029999999999999916     0.032778135130769305
0.17000000000000004       0.019999999999999796     0.02311126734895472
0.18000000000000005       0                        0
0.18000000000000005       0.009999999999999842     0.012173844537602098
0                         0.18999999999999992      0
0.010000000000000009      0.18999999999999984      0.012587239152009471
0.019999999999999962      0.17999999999999983      0.02395667244931792
0.02999999999999997       0.16999999999999993      0.03407746934065087
0.03999999999999995       0.15999999999999992      0.0429197013752299
0.04999999999999999       0.1499999999999998       0.05045496372379541
0.06                      0.1399999999999998       0.05665712104317622
0.07                      0.12999999999999984      0.061503158745878715
0.08000000000000002       0.11999999999999977      0.06497409185888443
0.09000000000000005       0.10999999999999971      0.06705585069129931
0.10000000000000006       0.09999999999999976      0.06774003598327483
0.11000000000000007       0.08999999999999991      0.06702443029410537
0.12000000000000008       0.08000000000000002      0.0649131777323364
0.13000000000000012       0.06999999999999995      0.06141659880998821
0.1400000000000001        0.05999999999999989      0.056550673989809355
0.15000000000000008       0.04999999999999988      0.05033628416879183
0.1600000000000001        0.03999999999999998      0.04279832167662791
0.17000000000000004       0.029999999999999916     0.03396477944005257
0.18000000000000005       0.019999999999999796     0.023865899400967054
0.19000000000000006       0                        0
0.19000000000000006       0.009999999999999842     0.012533428294613385
0                         0.1999999999999999       0
0.010000000000000009      0.1999999999999999       0.012938353058360146
0.019999999999999962      0.18999999999999978      0.024690944608685098
0.02999999999999997       0.17999999999999983      0.035228363847311636
0.03999999999999995       0.16999999999999993      0.044521974990621487
0.04999999999999996       0.15999999999999992      0.05254444341760911
0.06                      0.1499999999999998       0.05927036461034725
0.07                      0.1399999999999998       0.06467698444024503
0.08000000000000002       0.12999999999999984      0.06874497882135834
0.09000000000000005       0.11999999999999977      0.07145923612469735
0.10000000000000006       0.10999999999999971      0.07280956320630477
0.11000000000000007       0.09999999999999976      0.07279122487201509
0.12000000000000008       0.08999999999999991      0.07140523606153668
0.13000000000000012       0.08000000000000002      0.06865835867767132
0.1400000000000001        0.06999999999999995      0.06456280324804038
0.15000000000000008       0.05999999999999989      0.05913568386530793
0.1600000000000001        0.04999999999999988      0.05239830748647175
0.17000000000000004       0.03999999999999998      0.04437538811799493
0.18000000000000005       0.029999999999999916     0.035094265366290144
0.19000000000000006       0.019999999999999796     0.024584184272042946
0.20000000000000007       0                        0
0.20000000000000004       0.009999999999999842     0.012875668698829659
0                         0.20999999999999994      0
0.010000000000000009      0.2099999999999999       0.01327381081640397
0.019999999999999962      0.1999999999999999       0.025392348347326486
0.029999999999999943      0.18999999999999978      0.0363274868984786
0.03999999999999995       0.17999999999999983      0.046051773216582575
0.04999999999999996       0.16999999999999993      0.05453887626887332
0.06                      0.15999999999999992      0.061764122313330845
0.07                      0.1499999999999998       0.06770510849157405
0.08000000000000002       0.1399999999999998       0.07234237344661562
0.09000000000000005       0.12999999999999984      0.07566008512979931
0.10000000000000006       0.11999999999999977      0.07764668764543256
0.11000000000000007       0.10999999999999976      0.07829543680248263
0.12000000000000008       0.09999999999999976      0.07760475483888833
0.13000000000000012       0.08999999999999991      0.07557835259987712
0.1400000000000001        0.08000000000000002      0.0722251000923165
0.15000000000000008       0.06999999999999995      0.06755866489152632
0.1600000000000001        0.05999999999999983      0.06159697051080677
0.17000000000000004       0.04999999999999993      0.05436154464668133
0.18000000000000005       0.03999999999999998      0.0458768279906968
0.19000000000000006       0.029999999999999916     0.03616950209729541
0.20000000000000004       0.019999999999999796     0.025267876457125204
0.21000000000000002       0                        0
0.21000000000000002       0.009999999999999842     0.013201356562636515
0                         0.21999999999999997      0
0.010000000000000009      0.21999999999999992      0.01359435472514013
0.019999999999999962      0.2099999999999999       0.02606252329536347
0.02999999999999997       0.1999999999999999       0.03737754498521552
0.03999999999999995       0.18999999999999978      0.0475130479978057
0.04999999999999996       0.17999999999999983      0.056443637540265795
0.06                      0.16999999999999993      0.06414535492600025
0.07                      0.15999999999999992      0.07059620387994762
0.08000000000000002       0.1499999999999998       0.07577672954667009
0.09000000000000005       0.1399999999999998       0.0796706220324091
0.10000000000000006       0.12999999999999984      0.0822653017751309
0.11000000000000007       0.11999999999999977      0.08355243255085344
0.12000000000000008       0.10999999999999976      0.08352830442478668
0.13000000000000012       0.09999999999999976      0.08219403737805225
0.14000000000000012       0.08999999999999991      0.07955557711115835
0.15000000000000008       0.08000000000000002      0.07562348323704489
0.1600000000000001        0.06999999999999995      0.07041253878414969
0.17000000000000004       0.05999999999999989      0.06394123068863883
0.18000000000000005       0.04999999999999988      0.05623115935866071
0.19000000000000006       0.03999999999999998      0.047306431869800006
0.20000000000000004       0.029999999999999916     0.037193081837619706
0.21000000000000002       0.019999999999999796     0.02591854444685638
0.22000000000000003       0                        0
0.22000000000000003       0.009999999999999842     0.013511201419351127
0                         0.22999999999999993      0
0.010000000000000009      0.22999999999999987      0.01390065365002137
0.019999999999999962      0.21999999999999986      0.026702943665159337
0.029999999999999943      0.20999999999999985      0.03838096628877911
0.03999999999999998       0.1999999999999999       0.04890933819959765
0.04999999999999996       0.18999999999999978      0.05826353431858708
0.06                      0.17999999999999983      0.06642028497298061
0.07                      0.16999999999999993      0.07335803044533266
0.08000000000000002       0.15999999999999992      0.07905742311849061
0.09000000000000005       0.1499999999999998       0.08350185720226702
0.10000000000000006       0.1399999999999998       0.08667799463195258
0.11000000000000007       0.12999999999999984      0.08857624565962269
0.12000000000000008       0.11999999999999977      0.08919115736921025
0.13000000000000012       0.10999999999999976      0.08852166613823784
0.14000000000000012       0.09999999999999976      0.08657118242160787
0.15000000000000008       0.08999999999999991      0.08334749644921167
0.1600000000000001        0.08000000000000002      0.07886251669839169
0.17000000000000004       0.06999999999999995      0.07313187320943838
0.18000000000000005       0.05999999999999989      0.06617443014707185
0.19000000000000006       0.04999999999999993      0.058011754777877456
0.20000000000000004       0.03999999999999998      0.04866758471342984
0.21000000000000002       0.029999999999999916     0.03816732516620272
0.22000000000000003       0.019999999999999796     0.026537596535318904
0.23000000000000004       0                        0
0.23                      0.009999999999999842     0.013805842381031459
0                         0.23999999999999994      0
0.010000000000000009      0.23999999999999988      0.014193311593813639
0.019999999999999962      0.22999999999999987      0.027314938681000038
0.02999999999999997       0.21999999999999986      0.039339936667619535
0.03999999999999995       0.20999999999999985      0.05024382486524599
0.04999999999999996       0.1999999999999999       0.060002883049588125
0.06                      0.18999999999999978      0.06859449778179888
0.07                      0.17999999999999983      0.07599755767900841
0.08000000000000002       0.16999999999999993      0.08219289104009675
0.09000000000000005       0.15999999999999992      0.0871637315446595
0.10000000000000006       0.1499999999999998       0.09089618886304959
0.11000000000000007       0.1399999999999998       0.09337969252898222
0.12000000000000008       0.12999999999999984      0.0946073717060567
0.13000000000000012       0.11999999999999977      0.09457633310173853
0.14000000000000012       0.10999999999999971      0.09328780597067043
0.15000000000000008       0.09999999999999976      0.09074713667890909
0.1600000000000001        0.08999999999999991      0.08696363307141056
0.17000000000000004       0.08000000000000002      0.08195027665042039
0.18000000000000005       0.06999999999999995      0.07572333408639438
0.19000000000000006       0.05999999999999989      0.06830190624647357
0.20000000000000004       0.04999999999999993      0.05970745251547975
0.21000000000000002       0.03999999999999998      0.04996332242699729
0.22                      0.029999999999999916     0.03909431809593473
0.22999999999999998       0.019999999999999796     0.02712630202411943
0.23999999999999994       0                        0
0.23999999999999996       0.009999999999999842     0.01408585712499679
0                         0.24999999999999994      0
0.010000000000000009      0.2499999999999999       0.014472874758614886
0.019999999999999962      0.23999999999999988      0.02789970933537909
0.02999999999999997       0.22999999999999987      0.04025642907130184
0.03999999999999995       0.21999999999999986      0.05151937630937228
0.04999999999999996       0.20999999999999985      0.06166557289414118
0.06                      0.19999999999999984      0.0706730245040102
0.07                      0.18999999999999978      0.07852106671767506
0.08000000000000002       0.17999999999999983      0.0851907484008535
0.09000000000000005       0.16999999999999993      0.09066524218468641
0.10000000000000006       0.15999999999999992      0.09493026490127836
0.11000000000000007       0.1499999999999998       0.09797448384997198
0.12000000000000008       0.1399999999999998       0.09978987930329258
0.13000000000000012       0.12999999999999984      0.10037203165189611
0.14000000000000012       0.11999999999999977      0.09972030463558434
0.1500000000000001        0.10999999999999971      0.09783790469056658
0.1600000000000001        0.09999999999999976      0.09473180937797371
0.17000000000000004       0.08999999999999991      0.09041257244509597
0.18000000000000005       0.08000000000000002      0.08489402599329415
0.19000000000000006       0.06999999999999995      0.07819290878591646
0.20000000000000007       0.05999999999999989      0.07032845274395579
0.21000000000000005       0.04999999999999993      0.061321957627086324
0.22                      0.03999999999999998      0.05119637838819625
0.22999999999999998       0.029999999999999916     0.03997594265127225
0.24                      0.019999999999999796     0.02768580881136847
0.24999999999999994       0                        0
0.24999999999999994       0.009999999999999842     0.01435176939901321
0                         0.25999999999999995      0
0.010000000000000009      0.2599999999999999       0.014739837397012663
0.019999999999999962      0.2499999999999999       0.02845834221915677
0.02999999999999997       0.23999999999999988      0.041132227745842784
0.03999999999999995       0.22999999999999987      0.052738585172074866
0.04999999999999996       0.21999999999999986      0.06325511783453547
0.06                      0.20999999999999985      0.07266041068101872
0.07                      0.19999999999999984      0.08093423531345037
0.08000000000000002       0.18999999999999978      0.08805788768425761
0.09000000000000005       0.17999999999999983      0.09401455110040292
0.10000000000000006       0.16999999999999993      0.09878967181641006
0.11000000000000007       0.15999999999999992      0.10237132881352831
0.12000000000000008       0.1499999999999998       0.10475057445705256
0.13000000000000012       0.1399999999999998       0.10592172000481602
0.14000000000000012       0.12999999999999984      0.10588254075488489
0.1500000000000001        0.11999999999999977      0.10463438071172511
0.1600000000000001        0.10999999999999971      0.10218214566796863
0.17000000000000007       0.09999999999999976      0.09853418497906856
0.18000000000000005       0.08999999999999991      0.09370207368110485
0.19000000000000006       0.08000000000000002      0.08770031559882012
0.20000000000000004       0.06999999999999995      0.08054599314899431
0.21000000000000005       0.05999999999999989      0.07225839031637518
0.22000000000000003       0.04999999999999993      0.06285861251084675
0.22999999999999998       0.03999999999999998      0.05236922205650231
0.24                      0.029999999999999916     0.0408139023260033
0.24999999999999997       0.019999999999999796     0.028217158110110142
0.25999999999999995       0                        0
0.25999999999999995       0.009999999999999842     0.014604055341179875
0                         0.26999999999999996      0
0.010000000000000009      0.2699999999999999       0.014994646682208703
0.019999999999999962      0.2599999999999999       0.028991820996945358
0.02999999999999997       0.2499999999999999       0.0419689482682881
0.03999999999999995       0.23999999999999988      0.053903799049787385
0.04999999999999996       0.22999999999999987      0.06477469977502211
0.06                      0.21999999999999986      0.07456077314787952
0.07                      0.20999999999999985      0.08324220884587358
0.08000000000000002       0.19999999999999984      0.09080056264107016
0.09000000000000005       0.18999999999999978      0.09721907865388651
0.10000000000000006       0.17999999999999983      0.10248302526664682
0.11000000000000007       0.16999999999999993      0.10658003063824863
0.12000000000000008       0.15999999999999992      0.10950039951309036
0.13000000000000012       0.1499999999999998       0.1112373901176987
0.14000000000000012       0.1399999999999998       0.11178742946094665
0.1500000000000001        0.12999999999999984      0.11115024807587662
0.1600000000000001        0.11999999999999977      0.10932892125969502
0.17000000000000007       0.10999999999999971      0.10632981238536808
0.18000000000000005       0.09999999999999976      0.10216242330405687
0.19000000000000006       0.08999999999999991      0.09683916535804034